<?xml version="1.0" encoding="UTF-8"?>

<!-- generated on 2025-09-22 21:06:05 by Eclipse SUMO sumo Version 1.20.0
<configuration xmlns:xsi="http://www.w3.org/2001/XMLSchema-instance" xsi:noNamespaceSchemaLocation="http://sumo.dlr.de/xsd/sumoConfiguration.xsd">

    <input>
        <net-file value="project/sumo_files/jaipur.net.xml"/>
        <route-files value="project/sumo_files/jaipur.rou.xml"/>
    </input>

    <output>
        <tripinfo-output value="project/sumo_files/../baseline_tripinfo.xml"/>
    </output>

    <time>
        <begin value="0"/>
        <end value="3600"/>
    </time>

</configuration>
-->

<tripinfos xmlns:xsi="http://www.w3.org/2001/XMLSchema-instance" xsi:noNamespaceSchemaLocation="http://sumo.dlr.de/xsd/tripinfo_file.xsd">
    <tripinfo id="flow_lb_right_turn.0" depart="0.00" departLane="E3_0" departPos="5.10" departSpeed="0.00" departDelay="0.00" arrival="15.00" arrivalLane="E6_0" arrivalPos="38.10" arrivalSpeed="13.47" duration="15.00" routeLength="118.12" waitingTime="0.00" waitingCount="0" stopTime="0.00" timeLoss="5.42" rerouteNo="0" devices="tripinfo_flow_lb_right_turn.0" vType="car" speedFactor="1.08" vaporized=""/>
    <tripinfo id="flow_lr_straight.0" depart="0.00" departLane="E3_1" departPos="5.10" departSpeed="0.00" departDelay="0.00" arrival="16.00" arrivalLane="E4_1" arrivalPos="70.66" arrivalSpeed="13.98" duration="16.00" routeLength="162.51" waitingTime="0.00" waitingCount="0" stopTime="0.00" timeLoss="4.11" rerouteNo="0" devices="tripinfo_flow_lr_straight.0" vType="car" speedFactor="1.03" vaporized=""/>
    <tripinfo id="flow_rb_left_turn.0" depart="0.00" departLane="-E4_1" departPos="5.10" departSpeed="0.00" departDelay="0.00" arrival="18.00" arrivalLane="E6_1" arrivalPos="38.10" arrivalSpeed="13.88" duration="18.00" routeLength="123.07" waitingTime="0.00" waitingCount="0" stopTime="0.00" timeLoss="8.48" rerouteNo="0" devices="tripinfo_flow_rb_left_turn.0" vType="car" speedFactor="1.05" vaporized=""/>
    <tripinfo id="flow_rl_straight.0" depart="3.00" departLane="-E4_1" departPos="5.10" departSpeed="0.00" departDelay="3.00" arrival="24.00" arrivalLane="-E3_1" arrivalPos="76.09" arrivalSpeed="11.46" duration="21.00" routeLength="162.49" waitingTime="0.00" waitingCount="0" stopTime="0.00" timeLoss="7.03" rerouteNo="0" devices="tripinfo_flow_rl_straight.0" vType="car" speedFactor="0.89" vaporized=""/>
    <tripinfo id="flow_rl_straight.1" depart="11.00" departLane="-E4_1" departPos="5.10" departSpeed="0.00" departDelay="0.71" arrival="26.00" arrivalLane="-E3_1" arrivalPos="76.09" arrivalSpeed="13.20" duration="15.00" routeLength="162.49" waitingTime="0.00" waitingCount="0" stopTime="0.00" timeLoss="3.27" rerouteNo="0" devices="tripinfo_flow_rl_straight.1" vType="car" speedFactor="1.03" vaporized=""/>
    <tripinfo id="flow_lt_left_turn.0" depart="3.00" departLane="E3_1" departPos="5.10" departSpeed="0.00" departDelay="3.00" arrival="29.00" arrivalLane="E5_1" arrivalPos="42.66" arrivalSpeed="10.34" duration="26.00" routeLength="133.04" waitingTime="6.00" waitingCount="1" stopTime="0.00" timeLoss="13.03" rerouteNo="0" devices="tripinfo_flow_lt_left_turn.0" vType="car" speedFactor="0.83" vaporized=""/>
    <tripinfo id="flow_lr_straight.1" depart="11.00" departLane="E3_1" departPos="5.10" departSpeed="0.00" departDelay="0.71" arrival="30.00" arrivalLane="E4_0" arrivalPos="70.66" arrivalSpeed="14.53" duration="19.00" routeLength="162.51" waitingTime="0.00" waitingCount="0" stopTime="0.00" timeLoss="8.19" rerouteNo="0" devices="tripinfo_flow_lr_straight.1" vType="car" speedFactor="1.09" vaporized=""/>
    <tripinfo id="flow_lr_straight.2" depart="21.00" departLane="E3_1" departPos="5.10" departSpeed="0.00" departDelay="0.43" arrival="36.00" arrivalLane="E4_1" arrivalPos="70.66" arrivalSpeed="13.42" duration="15.00" routeLength="162.51" waitingTime="0.00" waitingCount="0" stopTime="0.00" timeLoss="3.19" rerouteNo="0" devices="tripinfo_flow_lr_straight.2" vType="car" speedFactor="0.99" vaporized=""/>
    <tripinfo id="flow_rl_straight.2" depart="21.00" departLane="-E4_1" departPos="5.10" departSpeed="0.00" departDelay="0.43" arrival="37.00" arrivalLane="-E3_1" arrivalPos="76.09" arrivalSpeed="12.45" duration="16.00" routeLength="162.49" waitingTime="0.00" waitingCount="0" stopTime="0.00" timeLoss="3.27" rerouteNo="0" devices="tripinfo_flow_rl_straight.2" vType="car" speedFactor="0.93" vaporized=""/>
    <tripinfo id="flow_lt_left_turn.1" depart="24.00" departLane="E3_1" departPos="5.10" departSpeed="0.00" departDelay="0.00" arrival="39.00" arrivalLane="E5_1" arrivalPos="42.66" arrivalSpeed="12.58" duration="15.00" routeLength="133.04" waitingTime="0.00" waitingCount="0" stopTime="0.00" timeLoss="3.87" rerouteNo="0" devices="tripinfo_flow_lt_left_turn.1" vType="car" speedFactor="0.94" vaporized=""/>
    <tripinfo id="flow_rb_left_turn.1" depart="24.00" departLane="-E4_1" departPos="5.10" departSpeed="0.00" departDelay="0.00" arrival="39.00" arrivalLane="E6_1" arrivalPos="38.10" arrivalSpeed="11.81" duration="15.00" routeLength="123.07" waitingTime="0.00" waitingCount="0" stopTime="0.00" timeLoss="4.41" rerouteNo="0" devices="tripinfo_flow_rb_left_turn.1" vType="car" speedFactor="0.94" vaporized=""/>
    <tripinfo id="flow_lb_right_turn.1" depart="30.00" departLane="E3_0" departPos="5.10" departSpeed="0.00" departDelay="0.00" arrival="45.00" arrivalLane="E6_0" arrivalPos="38.10" arrivalSpeed="13.69" duration="15.00" routeLength="118.12" waitingTime="0.00" waitingCount="0" stopTime="0.00" timeLoss="4.88" rerouteNo="0" devices="tripinfo_flow_lb_right_turn.1" vType="car" speedFactor="1.01" vaporized=""/>
    <tripinfo id="flow_lr_straight.3" depart="31.00" departLane="E3_1" departPos="5.10" departSpeed="0.00" departDelay="0.14" arrival="47.00" arrivalLane="E4_1" arrivalPos="70.66" arrivalSpeed="12.73" duration="16.00" routeLength="162.51" waitingTime="0.00" waitingCount="0" stopTime="0.00" timeLoss="3.50" rerouteNo="0" devices="tripinfo_flow_lr_straight.3" vType="car" speedFactor="0.97" vaporized=""/>
    <tripinfo id="flow_rl_straight.3" depart="31.00" departLane="-E4_1" departPos="5.10" departSpeed="0.00" departDelay="0.14" arrival="47.00" arrivalLane="-E3_1" arrivalPos="76.09" arrivalSpeed="11.67" duration="16.00" routeLength="162.49" waitingTime="0.00" waitingCount="0" stopTime="0.00" timeLoss="2.81" rerouteNo="0" devices="tripinfo_flow_rl_straight.3" vType="car" speedFactor="0.89" vaporized=""/>
    <tripinfo id="flow_tb_straight.0" depart="0.00" departLane="-E5_1" departPos="5.10" departSpeed="0.00" departDelay="0.00" arrival="52.00" arrivalLane="E6_0" arrivalPos="38.10" arrivalSpeed="12.74" duration="52.00" routeLength="96.50" waitingTime="37.00" waitingCount="1" stopTime="0.00" timeLoss="44.14" rerouteNo="0" devices="tripinfo_flow_tb_straight.0" vType="car" speedFactor="0.94" vaporized=""/>
    <tripinfo id="flow_br_right_turn.0" depart="0.00" departLane="-E6_0" departPos="5.10" departSpeed="0.00" departDelay="0.00" arrival="54.00" arrivalLane="E4_0" arrivalPos="70.66" arrivalSpeed="12.57" duration="54.00" routeLength="112.80" waitingTime="37.00" waitingCount="1" stopTime="0.00" timeLoss="44.45" rerouteNo="0" devices="tripinfo_flow_br_right_turn.0" vType="car" speedFactor="0.94" vaporized=""/>
    <tripinfo id="flow_bt_straight.1" depart="12.00" departLane="-E6_1" departPos="5.10" departSpeed="0.00" departDelay="0.00" arrival="54.00" arrivalLane="E5_0" arrivalPos="42.66" arrivalSpeed="14.39" duration="42.00" routeLength="96.52" waitingTime="24.00" waitingCount="1" stopTime="0.00" timeLoss="35.31" rerouteNo="0" devices="tripinfo_flow_bt_straight.1" vType="car" speedFactor="1.05" vaporized=""/>
    <tripinfo id="flow_tb_straight.2" depart="24.00" departLane="-E5_1" departPos="5.10" departSpeed="0.00" departDelay="0.00" arrival="54.00" arrivalLane="E6_0" arrivalPos="38.10" arrivalSpeed="15.73" duration="30.00" routeLength="96.50" waitingTime="11.00" waitingCount="1" stopTime="0.00" timeLoss="23.31" rerouteNo="0" devices="tripinfo_flow_tb_straight.2" vType="car" speedFactor="1.16" vaporized=""/>
    <tripinfo id="flow_tb_straight.1" depart="12.00" departLane="-E5_1" departPos="5.10" departSpeed="0.00" departDelay="0.00" arrival="57.00" arrivalLane="E6_0" arrivalPos="38.10" arrivalSpeed="14.52" duration="45.00" routeLength="96.50" waitingTime="24.00" waitingCount="1" stopTime="0.00" timeLoss="38.18" rerouteNo="0" devices="tripinfo_flow_tb_straight.1" vType="car" speedFactor="1.12" vaporized=""/>
    <tripinfo id="flow_br_right_turn.1" depart="30.00" departLane="-E6_0" departPos="5.10" departSpeed="0.00" departDelay="0.00" arrival="59.00" arrivalLane="E4_0" arrivalPos="70.66" arrivalSpeed="13.35" duration="29.00" routeLength="112.80" waitingTime="11.00" waitingCount="1" stopTime="0.00" timeLoss="19.69" rerouteNo="0" devices="tripinfo_flow_br_right_turn.1" vType="car" speedFactor="1.02" vaporized=""/>
    <tripinfo id="flow_bt_straight.3" depart="39.00" departLane="-E6_1" departPos="5.10" departSpeed="0.00" departDelay="3.00" arrival="59.00" arrivalLane="E5_0" arrivalPos="42.66" arrivalSpeed="10.96" duration="20.00" routeLength="96.52" waitingTime="1.00" waitingCount="1" stopTime="0.00" timeLoss="11.85" rerouteNo="0" devices="tripinfo_flow_bt_straight.3" vType="car" speedFactor="0.87" vaporized=""/>
    <tripinfo id="flow_bt_straight.0" depart="3.00" departLane="-E6_1" departPos="5.10" departSpeed="0.00" departDelay="3.00" arrival="62.00" arrivalLane="E5_1" arrivalPos="42.66" arrivalSpeed="13.56" duration="59.00" routeLength="96.52" waitingTime="38.00" waitingCount="2" stopTime="0.00" timeLoss="52.08" rerouteNo="0" devices="tripinfo_flow_bt_straight.0" vType="car" speedFactor="1.01" vaporized=""/>
    <tripinfo id="flow_bl_left_turn.0" depart="0.00" departLane="-E6_1" departPos="5.10" departSpeed="0.00" departDelay="0.00" arrival="63.00" arrivalLane="-E3_1" arrivalPos="76.09" arrivalSpeed="14.28" duration="63.00" routeLength="128.47" waitingTime="43.00" waitingCount="2" stopTime="0.00" timeLoss="53.24" rerouteNo="0" devices="tripinfo_flow_bl_left_turn.0" vType="car" speedFactor="1.06" vaporized=""/>
    <tripinfo id="flow_bt_straight.2" depart="24.00" departLane="-E6_1" departPos="5.10" departSpeed="0.00" departDelay="0.00" arrival="63.00" arrivalLane="E5_0" arrivalPos="42.66" arrivalSpeed="11.84" duration="39.00" routeLength="96.52" waitingTime="18.00" waitingCount="2" stopTime="0.00" timeLoss="30.73" rerouteNo="0" devices="tripinfo_flow_bt_straight.2" vType="car" speedFactor="0.88" vaporized=""/>
    <tripinfo id="flow_tb_straight.3" depart="36.00" departLane="-E5_1" departPos="5.10" departSpeed="0.00" departDelay="0.00" arrival="63.00" arrivalLane="E6_0" arrivalPos="38.10" arrivalSpeed="11.46" duration="27.00" routeLength="96.50" waitingTime="4.00" waitingCount="2" stopTime="0.00" timeLoss="18.95" rerouteNo="0" devices="tripinfo_flow_tb_straight.3" vType="car" speedFactor="0.92" vaporized=""/>
    <tripinfo id="flow_bt_straight.4" depart="48.00" departLane="-E6_1" departPos="5.10" departSpeed="0.00" departDelay="0.00" arrival="65.00" arrivalLane="E5_0" arrivalPos="42.66" arrivalSpeed="15.96" duration="17.00" routeLength="96.52" waitingTime="0.00" waitingCount="0" stopTime="0.00" timeLoss="10.29" rerouteNo="0" devices="tripinfo_flow_bt_straight.4" vType="car" speedFactor="1.18" vaporized=""/>
    <tripinfo id="flow_tb_straight.4" depart="48.00" departLane="-E5_1" departPos="5.10" departSpeed="0.00" departDelay="0.00" arrival="65.00" arrivalLane="E6_0" arrivalPos="38.10" arrivalSpeed="15.40" duration="17.00" routeLength="96.50" waitingTime="0.00" waitingCount="0" stopTime="0.00" timeLoss="10.18" rerouteNo="0" devices="tripinfo_flow_tb_straight.4" vType="car" speedFactor="1.17" vaporized=""/>
    <tripinfo id="flow_bt_straight.5" depart="60.00" departLane="-E6_1" departPos="5.10" departSpeed="0.00" departDelay="0.00" arrival="70.00" arrivalLane="E5_1" arrivalPos="42.66" arrivalSpeed="15.20" duration="10.00" routeLength="96.52" waitingTime="0.00" waitingCount="0" stopTime="0.00" timeLoss="3.66" rerouteNo="0" devices="tripinfo_flow_bt_straight.5" vType="car" speedFactor="1.18" vaporized=""/>
    <tripinfo id="flow_tr_left_turn.0" depart="3.00" departLane="-E5_1" departPos="5.10" departSpeed="0.00" departDelay="3.00" arrival="71.00" arrivalLane="E4_1" arrivalPos="70.66" arrivalSpeed="11.69" duration="68.00" routeLength="127.60" waitingTime="44.00" waitingCount="3" stopTime="0.00" timeLoss="56.52" rerouteNo="0" devices="tripinfo_flow_tr_left_turn.0" vType="car" speedFactor="0.86" vaporized=""/>
    <tripinfo id="flow_bl_left_turn.1" depart="36.00" departLane="-E6_1" departPos="5.10" departSpeed="0.00" departDelay="0.00" arrival="72.00" arrivalLane="-E3_1" arrivalPos="76.09" arrivalSpeed="11.19" duration="36.00" routeLength="128.47" waitingTime="7.00" waitingCount="2" stopTime="0.00" timeLoss="23.78" rerouteNo="0" devices="tripinfo_flow_bl_left_turn.1" vType="car" speedFactor="0.83" vaporized=""/>
    <tripinfo id="flow_br_right_turn.2" depart="60.00" departLane="-E6_0" departPos="5.10" departSpeed="0.00" departDelay="0.00" arrival="75.00" arrivalLane="E4_0" arrivalPos="70.66" arrivalSpeed="13.17" duration="15.00" routeLength="112.80" waitingTime="0.00" waitingCount="0" stopTime="0.00" timeLoss="5.71" rerouteNo="0" devices="tripinfo_flow_br_right_turn.2" vType="car" speedFactor="0.97" vaporized=""/>
    <tripinfo id="flow_tb_straight.5" depart="60.00" departLane="-E5_1" departPos="5.10" departSpeed="0.00" departDelay="0.00" arrival="75.00" arrivalLane="E6_0" arrivalPos="38.10" arrivalSpeed="12.01" duration="15.00" routeLength="96.50" waitingTime="0.00" waitingCount="0" stopTime="0.00" timeLoss="6.76" rerouteNo="0" devices="tripinfo_flow_tb_straight.5" vType="car" speedFactor="0.90" vaporized=""/>
    <tripinfo id="flow_tr_left_turn.1" depart="39.00" departLane="-E5_1" departPos="5.10" departSpeed="0.00" departDelay="3.00" arrival="77.00" arrivalLane="E4_1" arrivalPos="70.66" arrivalSpeed="12.72" duration="38.00" routeLength="127.60" waitingTime="6.00" waitingCount="3" stopTime="0.00" timeLoss="27.66" rerouteNo="0" devices="tripinfo_flow_tr_left_turn.1" vType="car" speedFactor="0.95" vaporized=""/>
    <tripinfo id="flow_tb_straight.6" depart="72.00" departLane="-E5_1" departPos="5.10" departSpeed="0.00" departDelay="0.00" arrival="82.00" arrivalLane="E6_1" arrivalPos="38.10" arrivalSpeed="13.41" duration="10.00" routeLength="96.50" waitingTime="0.00" waitingCount="0" stopTime="0.00" timeLoss="2.98" rerouteNo="0" devices="tripinfo_flow_tb_straight.6" vType="car" speedFactor="1.00" vaporized=""/>
    <tripinfo id="flow_bt_straight.6" depart="75.00" departLane="-E6_1" departPos="5.10" departSpeed="0.00" departDelay="3.00" arrival="86.00" arrivalLane="E5_1" arrivalPos="42.66" arrivalSpeed="13.28" duration="11.00" routeLength="96.52" waitingTime="0.00" waitingCount="0" stopTime="0.00" timeLoss="3.93" rerouteNo="0" devices="tripinfo_flow_bt_straight.6" vType="car" speedFactor="1.04" vaporized=""/>
    <tripinfo id="flow_bl_left_turn.2" depart="72.00" departLane="-E6_1" departPos="5.10" departSpeed="0.00" departDelay="0.00" arrival="88.00" arrivalLane="-E3_1" arrivalPos="76.09" arrivalSpeed="14.50" duration="16.00" routeLength="128.47" waitingTime="0.00" waitingCount="0" stopTime="0.00" timeLoss="6.12" rerouteNo="0" devices="tripinfo_flow_bl_left_turn.2" vType="car" speedFactor="1.09" vaporized=""/>
    <tripinfo id="flow_tr_left_turn.2" depart="75.00" departLane="-E5_1" departPos="5.10" departSpeed="0.00" departDelay="3.00" arrival="94.00" arrivalLane="E4_1" arrivalPos="70.66" arrivalSpeed="11.96" duration="19.00" routeLength="127.60" waitingTime="1.00" waitingCount="1" stopTime="0.00" timeLoss="7.18" rerouteNo="0" devices="tripinfo_flow_tr_left_turn.2" vType="car" speedFactor="0.90" vaporized=""/>
    <tripinfo id="flow_lr_straight.4" depart="42.00" departLane="E3_1" departPos="5.10" departSpeed="0.00" departDelay="0.86" arrival="99.00" arrivalLane="E4_0" arrivalPos="70.66" arrivalSpeed="15.14" duration="57.00" routeLength="162.51" waitingTime="35.00" waitingCount="1" stopTime="0.00" timeLoss="46.25" rerouteNo="0" devices="tripinfo_flow_lr_straight.4" vType="car" speedFactor="1.13" vaporized=""/>
    <tripinfo id="flow_lb_right_turn.2" depart="60.00" departLane="E3_0" departPos="5.10" departSpeed="0.00" departDelay="0.00" arrival="99.00" arrivalLane="E6_0" arrivalPos="38.10" arrivalSpeed="12.63" duration="39.00" routeLength="118.12" waitingTime="21.00" waitingCount="1" stopTime="0.00" timeLoss="30.06" rerouteNo="0" devices="tripinfo_flow_lb_right_turn.2" vType="car" speedFactor="1.10" vaporized=""/>
    <tripinfo id="flow_rl_straight.4" depart="42.00" departLane="-E4_1" departPos="5.10" departSpeed="0.00" departDelay="0.86" arrival="100.00" arrivalLane="-E3_0" arrivalPos="76.09" arrivalSpeed="12.65" duration="58.00" routeLength="162.49" waitingTime="36.00" waitingCount="1" stopTime="0.00" timeLoss="44.69" rerouteNo="0" devices="tripinfo_flow_rl_straight.4" vType="car" speedFactor="0.93" vaporized=""/>
    <tripinfo id="flow_rl_straight.6" depart="62.00" departLane="-E4_1" departPos="5.10" departSpeed="0.00" departDelay="0.28" arrival="102.00" arrivalLane="-E3_0" arrivalPos="76.09" arrivalSpeed="12.98" duration="40.00" routeLength="162.49" waitingTime="14.00" waitingCount="1" stopTime="0.00" timeLoss="27.00" rerouteNo="0" devices="tripinfo_flow_rl_straight.6" vType="car" speedFactor="0.96" vaporized=""/>
    <tripinfo id="flow_lr_straight.7" depart="75.00" departLane="E3_1" departPos="5.10" departSpeed="0.00" departDelay="3.00" arrival="104.00" arrivalLane="E4_0" arrivalPos="70.66" arrivalSpeed="10.98" duration="29.00" routeLength="162.51" waitingTime="5.00" waitingCount="1" stopTime="0.00" timeLoss="15.30" rerouteNo="0" devices="tripinfo_flow_lr_straight.7" vType="car" speedFactor="0.88" vaporized=""/>
    <tripinfo id="flow_rl_straight.7" depart="75.00" departLane="-E4_1" departPos="5.10" departSpeed="0.00" departDelay="3.00" arrival="104.00" arrivalLane="-E3_0" arrivalPos="76.09" arrivalSpeed="11.62" duration="29.00" routeLength="162.49" waitingTime="5.00" waitingCount="2" stopTime="0.00" timeLoss="15.01" rerouteNo="0" devices="tripinfo_flow_rl_straight.7" vType="car" speedFactor="0.85" vaporized=""/>
    <tripinfo id="flow_lr_straight.8" depart="83.00" departLane="E3_1" departPos="5.10" departSpeed="0.00" departDelay="0.71" arrival="106.00" arrivalLane="E4_0" arrivalPos="70.66" arrivalSpeed="11.70" duration="23.00" routeLength="162.51" waitingTime="0.00" waitingCount="0" stopTime="0.00" timeLoss="8.99" rerouteNo="0" devices="tripinfo_flow_lr_straight.8" vType="car" speedFactor="0.85" vaporized=""/>
    <tripinfo id="flow_lb_right_turn.3" depart="90.00" departLane="E3_0" departPos="5.10" departSpeed="0.00" departDelay="0.00" arrival="106.00" arrivalLane="E6_0" arrivalPos="38.10" arrivalSpeed="12.56" duration="16.00" routeLength="118.12" waitingTime="0.00" waitingCount="0" stopTime="0.00" timeLoss="6.76" rerouteNo="0" devices="tripinfo_flow_lb_right_turn.3" vType="car" speedFactor="1.00" vaporized=""/>
    <tripinfo id="flow_rl_straight.5" depart="52.00" departLane="-E4_1" departPos="5.10" departSpeed="0.00" departDelay="0.57" arrival="108.00" arrivalLane="-E3_0" arrivalPos="76.09" arrivalSpeed="13.78" duration="56.00" routeLength="162.49" waitingTime="33.00" waitingCount="2" stopTime="0.00" timeLoss="43.66" rerouteNo="0" devices="tripinfo_flow_rl_straight.5" vType="car" speedFactor="1.02" vaporized=""/>
    <tripinfo id="flow_rl_straight.8" depart="83.00" departLane="-E4_1" departPos="5.10" departSpeed="0.00" departDelay="0.71" arrival="109.00" arrivalLane="-E3_0" arrivalPos="76.09" arrivalSpeed="15.75" duration="26.00" routeLength="162.49" waitingTime="2.00" waitingCount="2" stopTime="0.00" timeLoss="15.69" rerouteNo="0" devices="tripinfo_flow_rl_straight.8" vType="car" speedFactor="1.17" vaporized=""/>
    <tripinfo id="flow_lr_straight.6" depart="62.00" departLane="E3_1" departPos="5.10" departSpeed="0.00" departDelay="0.28" arrival="111.00" arrivalLane="E4_0" arrivalPos="70.66" arrivalSpeed="13.63" duration="49.00" routeLength="162.51" waitingTime="24.00" waitingCount="2" stopTime="0.00" timeLoss="36.89" rerouteNo="0" devices="tripinfo_flow_lr_straight.6" vType="car" speedFactor="1.03" vaporized=""/>
    <tripinfo id="flow_lr_straight.5" depart="52.00" departLane="E3_1" departPos="5.10" departSpeed="0.00" departDelay="0.57" arrival="114.00" arrivalLane="E4_0" arrivalPos="70.66" arrivalSpeed="12.59" duration="62.00" routeLength="162.51" waitingTime="35.00" waitingCount="2" stopTime="0.00" timeLoss="49.99" rerouteNo="0" devices="tripinfo_flow_lr_straight.5" vType="car" speedFactor="0.99" vaporized=""/>
    <tripinfo id="flow_rl_straight.9" depart="93.00" departLane="-E4_1" departPos="5.10" departSpeed="0.00" departDelay="0.43" arrival="114.00" arrivalLane="-E3_0" arrivalPos="76.09" arrivalSpeed="14.77" duration="21.00" routeLength="162.49" waitingTime="0.00" waitingCount="0" stopTime="0.00" timeLoss="10.10" rerouteNo="0" devices="tripinfo_flow_rl_straight.9" vType="car" speedFactor="1.14" vaporized=""/>
    <tripinfo id="flow_lt_left_turn.2" depart="48.00" departLane="E3_1" departPos="5.10" departSpeed="0.00" departDelay="0.00" arrival="117.00" arrivalLane="E5_1" arrivalPos="42.66" arrivalSpeed="15.72" duration="69.00" routeLength="133.04" waitingTime="43.00" waitingCount="2" stopTime="0.00" timeLoss="59.80" rerouteNo="0" devices="tripinfo_flow_lt_left_turn.2" vType="car" speedFactor="1.15" vaporized=""/>
    <tripinfo id="flow_lr_straight.9" depart="93.00" departLane="E3_1" departPos="5.10" departSpeed="0.00" departDelay="0.43" arrival="117.00" arrivalLane="E4_0" arrivalPos="70.66" arrivalSpeed="12.15" duration="24.00" routeLength="162.51" waitingTime="0.00" waitingCount="0" stopTime="0.00" timeLoss="10.03" rerouteNo="0" devices="tripinfo_flow_lr_straight.9" vType="car" speedFactor="0.90" vaporized=""/>
    <tripinfo id="flow_rb_left_turn.2" depart="48.00" departLane="-E4_1" departPos="5.10" departSpeed="0.00" departDelay="0.00" arrival="118.00" arrivalLane="E6_1" arrivalPos="38.10" arrivalSpeed="13.33" duration="70.00" routeLength="123.07" waitingTime="51.00" waitingCount="2" stopTime="0.00" timeLoss="60.22" rerouteNo="0" devices="tripinfo_flow_rb_left_turn.2" vType="car" speedFactor="1.01" vaporized=""/>
    <tripinfo id="flow_rl_straight.10" depart="103.00" departLane="-E4_1" departPos="5.10" departSpeed="0.00" departDelay="0.14" arrival="122.00" arrivalLane="-E3_0" arrivalPos="76.09" arrivalSpeed="12.59" duration="19.00" routeLength="162.49" waitingTime="0.00" waitingCount="0" stopTime="0.00" timeLoss="6.93" rerouteNo="0" devices="tripinfo_flow_rl_straight.10" vType="car" speedFactor="0.99" vaporized=""/>
    <tripinfo id="flow_lr_straight.10" depart="103.00" departLane="E3_1" departPos="5.10" departSpeed="0.00" departDelay="0.14" arrival="123.00" arrivalLane="E4_0" arrivalPos="70.66" arrivalSpeed="13.88" duration="20.00" routeLength="162.51" waitingTime="0.00" waitingCount="0" stopTime="0.00" timeLoss="8.35" rerouteNo="0" devices="tripinfo_flow_lr_straight.10" vType="car" speedFactor="1.02" vaporized=""/>
    <tripinfo id="flow_lt_left_turn.3" depart="72.00" departLane="E3_1" departPos="5.10" departSpeed="0.00" departDelay="0.00" arrival="124.00" arrivalLane="E5_1" arrivalPos="42.66" arrivalSpeed="13.64" duration="52.00" routeLength="133.04" waitingTime="17.00" waitingCount="4" stopTime="0.00" timeLoss="41.76" rerouteNo="0" devices="tripinfo_flow_lt_left_turn.3" vType="car" speedFactor="1.04" vaporized=""/>
    <tripinfo id="flow_rb_left_turn.3" depart="72.00" departLane="-E4_1" departPos="5.10" departSpeed="0.00" departDelay="0.00" arrival="124.00" arrivalLane="E6_1" arrivalPos="38.10" arrivalSpeed="14.93" duration="52.00" routeLength="123.07" waitingTime="23.00" waitingCount="4" stopTime="0.00" timeLoss="42.89" rerouteNo="0" devices="tripinfo_flow_rb_left_turn.3" vType="car" speedFactor="1.09" vaporized=""/>
    <tripinfo id="flow_lr_straight.11" depart="114.00" departLane="E3_1" departPos="5.10" departSpeed="0.00" departDelay="0.85" arrival="132.00" arrivalLane="E4_0" arrivalPos="70.66" arrivalSpeed="14.00" duration="18.00" routeLength="162.51" waitingTime="0.00" waitingCount="0" stopTime="0.00" timeLoss="5.97" rerouteNo="0" devices="tripinfo_flow_lr_straight.11" vType="car" speedFactor="1.04" vaporized=""/>
    <tripinfo id="flow_lt_left_turn.4" depart="96.00" departLane="E3_1" departPos="5.10" departSpeed="0.00" departDelay="0.00" arrival="133.00" arrivalLane="E5_1" arrivalPos="42.66" arrivalSpeed="13.20" duration="37.00" routeLength="133.04" waitingTime="6.00" waitingCount="2" stopTime="0.00" timeLoss="26.16" rerouteNo="0" devices="tripinfo_flow_lt_left_turn.4" vType="car" speedFactor="0.97" vaporized=""/>
    <tripinfo id="flow_rb_left_turn.4" depart="96.00" departLane="-E4_1" departPos="5.10" departSpeed="0.00" departDelay="0.00" arrival="133.00" arrivalLane="E6_1" arrivalPos="38.10" arrivalSpeed="14.11" duration="37.00" routeLength="123.07" waitingTime="8.00" waitingCount="2" stopTime="0.00" timeLoss="27.94" rerouteNo="0" devices="tripinfo_flow_rb_left_turn.4" vType="car" speedFactor="1.08" vaporized=""/>
    <tripinfo id="flow_rl_straight.11" depart="114.00" departLane="-E4_1" departPos="5.10" departSpeed="0.00" departDelay="0.85" arrival="133.00" arrivalLane="-E3_0" arrivalPos="76.09" arrivalSpeed="13.16" duration="19.00" routeLength="162.49" waitingTime="0.00" waitingCount="0" stopTime="0.00" timeLoss="6.67" rerouteNo="0" devices="tripinfo_flow_rl_straight.11" vType="car" speedFactor="1.02" vaporized=""/>
    <tripinfo id="flow_lb_right_turn.4" depart="120.00" departLane="E3_0" departPos="5.10" departSpeed="0.00" departDelay="0.00" arrival="135.00" arrivalLane="E6_0" arrivalPos="38.10" arrivalSpeed="13.03" duration="15.00" routeLength="118.12" waitingTime="0.00" waitingCount="0" stopTime="0.00" timeLoss="4.54" rerouteNo="0" devices="tripinfo_flow_lb_right_turn.4" vType="car" speedFactor="0.94" vaporized=""/>
    <tripinfo id="flow_lt_left_turn.5" depart="120.00" departLane="E3_1" departPos="5.10" departSpeed="0.00" departDelay="0.00" arrival="138.00" arrivalLane="E5_1" arrivalPos="42.66" arrivalSpeed="14.42" duration="18.00" routeLength="133.04" waitingTime="0.00" waitingCount="0" stopTime="0.00" timeLoss="7.94" rerouteNo="0" devices="tripinfo_flow_lt_left_turn.5" vType="car" speedFactor="1.06" vaporized=""/>
    <tripinfo id="flow_rb_left_turn.5" depart="120.00" departLane="-E4_1" departPos="5.10" departSpeed="0.00" departDelay="0.00" arrival="139.00" arrivalLane="E6_1" arrivalPos="38.10" arrivalSpeed="13.19" duration="19.00" routeLength="123.07" waitingTime="0.00" waitingCount="0" stopTime="0.00" timeLoss="8.06" rerouteNo="0" devices="tripinfo_flow_rb_left_turn.5" vType="car" speedFactor="0.96" vaporized=""/>
    <tripinfo id="flow_bt_straight.7" depart="84.00" departLane="-E6_1" departPos="5.10" departSpeed="0.00" departDelay="0.00" arrival="142.00" arrivalLane="E5_0" arrivalPos="42.66" arrivalSpeed="13.09" duration="58.00" routeLength="96.52" waitingTime="42.00" waitingCount="1" stopTime="0.00" timeLoss="50.85" rerouteNo="0" devices="tripinfo_flow_bt_straight.7" vType="car" speedFactor="1.02" vaporized=""/>
    <tripinfo id="flow_tb_straight.7" depart="84.00" departLane="-E5_1" departPos="5.10" departSpeed="0.00" departDelay="0.00" arrival="142.00" arrivalLane="E6_1" arrivalPos="38.10" arrivalSpeed="15.18" duration="58.00" routeLength="96.50" waitingTime="42.00" waitingCount="1" stopTime="0.00" timeLoss="50.94" rerouteNo="0" devices="tripinfo_flow_tb_straight.7" vType="car" speedFactor="1.10" vaporized=""/>
    <tripinfo id="flow_tb_straight.8" depart="96.00" departLane="-E5_1" departPos="5.10" departSpeed="0.00" departDelay="0.00" arrival="142.00" arrivalLane="E6_0" arrivalPos="38.10" arrivalSpeed="14.77" duration="46.00" routeLength="96.50" waitingTime="29.00" waitingCount="1" stopTime="0.00" timeLoss="39.37" rerouteNo="0" devices="tripinfo_flow_tb_straight.8" vType="car" speedFactor="1.12" vaporized=""/>
    <tripinfo id="flow_br_right_turn.3" depart="90.00" departLane="-E6_0" departPos="5.10" departSpeed="0.00" departDelay="0.00" arrival="144.00" arrivalLane="E4_0" arrivalPos="70.66" arrivalSpeed="13.37" duration="54.00" routeLength="112.80" waitingTime="38.00" waitingCount="1" stopTime="0.00" timeLoss="44.41" rerouteNo="0" devices="tripinfo_flow_br_right_turn.3" vType="car" speedFactor="1.00" vaporized=""/>
    <tripinfo id="flow_bt_straight.8" depart="96.00" departLane="-E6_1" departPos="5.10" departSpeed="0.00" departDelay="0.00" arrival="144.00" arrivalLane="E5_1" arrivalPos="42.66" arrivalSpeed="13.68" duration="48.00" routeLength="96.52" waitingTime="33.00" waitingCount="1" stopTime="0.00" timeLoss="40.45" rerouteNo="0" devices="tripinfo_flow_bt_straight.8" vType="car" speedFactor="1.02" vaporized=""/>
    <tripinfo id="flow_tb_straight.9" depart="108.00" departLane="-E5_1" departPos="5.10" departSpeed="0.00" departDelay="0.00" arrival="144.00" arrivalLane="E6_1" arrivalPos="38.10" arrivalSpeed="11.42" duration="36.00" routeLength="96.50" waitingTime="19.00" waitingCount="1" stopTime="0.00" timeLoss="27.83" rerouteNo="0" devices="tripinfo_flow_tb_straight.9" vType="car" speedFactor="0.91" vaporized=""/>
    <tripinfo id="flow_tb_straight.10" depart="120.00" departLane="-E5_1" departPos="5.10" departSpeed="0.00" departDelay="0.00" arrival="144.00" arrivalLane="E6_0" arrivalPos="38.10" arrivalSpeed="13.49" duration="24.00" routeLength="96.50" waitingTime="6.00" waitingCount="1" stopTime="0.00" timeLoss="16.95" rerouteNo="0" devices="tripinfo_flow_tb_straight.10" vType="car" speedFactor="0.98" vaporized=""/>